
 displacements (vx,vy,vz) for set LOAD_POINT and time  0.1000000E+01

     17165  1.859157E-06  3.725287E-12 -9.364032E-10
