# vtk DataFile Version 2.0

ASCII

DATASET UNSTRUCTURED_GRID

POINTS 161 double 

1.24794999999999984e-03  0.00000000000000000e+00  0.00000000000000000e+00
3.75645999999999966e-03  0.00000000000000000e+00  0.00000000000000000e+00
6.29032999999999849e-03  0.00000000000000000e+00  0.00000000000000000e+00
8.84981999999999783e-03  0.00000000000000000e+00  0.00000000000000000e+00
1.14351999999999995e-02  0.00000000000000000e+00  0.00000000000000000e+00
1.40467000000000005e-02  0.00000000000000000e+00  0.00000000000000000e+00
1.66846000000000008e-02  0.00000000000000000e+00  0.00000000000000000e+00
1.93492000000000004e-02  0.00000000000000000e+00  0.00000000000000000e+00
2.20407000000000033e-02  0.00000000000000000e+00  0.00000000000000000e+00
2.47593999999999974e-02  0.00000000000000000e+00  0.00000000000000000e+00
2.75056000000000016e-02  0.00000000000000000e+00  0.00000000000000000e+00
3.02795499999999988e-02  0.00000000000000000e+00  0.00000000000000000e+00
3.30815500000000012e-02  0.00000000000000000e+00  0.00000000000000000e+00
3.59118999999999966e-02  0.00000000000000000e+00  0.00000000000000000e+00
3.87708999999999970e-02  0.00000000000000000e+00  0.00000000000000000e+00
4.16587500000000013e-02  0.00000000000000000e+00  0.00000000000000000e+00
4.45757999999999988e-02  0.00000000000000000e+00  0.00000000000000000e+00
4.75223499999999979e-02  0.00000000000000000e+00  0.00000000000000000e+00
5.04986499999999991e-02  0.00000000000000000e+00  0.00000000000000000e+00
5.35050999999999999e-02  0.00000000000000000e+00  0.00000000000000000e+00
5.65419500000000005e-02  0.00000000000000000e+00  0.00000000000000000e+00
5.96094499999999944e-02  0.00000000000000000e+00  0.00000000000000000e+00
6.27079499999999707e-02  0.00000000000000000e+00  0.00000000000000000e+00
6.58378000000000019e-02  0.00000000000000000e+00  0.00000000000000000e+00
6.89993000000000134e-02  0.00000000000000000e+00  0.00000000000000000e+00
7.21928000000000014e-02  0.00000000000000000e+00  0.00000000000000000e+00
7.54185500000000009e-02  0.00000000000000000e+00  0.00000000000000000e+00
7.86768999999999941e-02  0.00000000000000000e+00  0.00000000000000000e+00
8.19682000000000049e-02  0.00000000000000000e+00  0.00000000000000000e+00
8.52927499999999866e-02  0.00000000000000000e+00  0.00000000000000000e+00
8.86509499999999923e-02  0.00000000000000000e+00  0.00000000000000000e+00
9.20431000000000027e-02  0.00000000000000000e+00  0.00000000000000000e+00
9.54695499999999864e-02  0.00000000000000000e+00  0.00000000000000000e+00
9.89306999999999964e-02  0.00000000000000000e+00  0.00000000000000000e+00
1.02426499999999976e-01  0.00000000000000000e+00  0.00000000000000000e+00
1.05957999999999997e-01  0.00000000000000000e+00  0.00000000000000000e+00
1.09525499999999998e-01  0.00000000000000000e+00  0.00000000000000000e+00
1.13128499999999979e-01  0.00000000000000000e+00  0.00000000000000000e+00
1.16767999999999997e-01  0.00000000000000000e+00  0.00000000000000000e+00
1.20444499999999982e-01  0.00000000000000000e+00  0.00000000000000000e+00
1.24157999999999991e-01  0.00000000000000000e+00  0.00000000000000000e+00
1.27908999999999995e-01  0.00000000000000000e+00  0.00000000000000000e+00
1.31698000000000010e-01  0.00000000000000000e+00  0.00000000000000000e+00
1.35525499999999993e-01  0.00000000000000000e+00  0.00000000000000000e+00
1.39391500000000002e-01  0.00000000000000000e+00  0.00000000000000000e+00
1.43296499999999993e-01  0.00000000000000000e+00  0.00000000000000000e+00
1.47241000000000011e-01  0.00000000000000000e+00  0.00000000000000000e+00
1.51225499999999985e-01  0.00000000000000000e+00  0.00000000000000000e+00
1.55250500000000013e-01  0.00000000000000000e+00  0.00000000000000000e+00
1.59315999999999985e-01  0.00000000000000000e+00  0.00000000000000000e+00
1.63422499999999971e-01  0.00000000000000000e+00  0.00000000000000000e+00
1.67570500000000011e-01  0.00000000000000000e+00  0.00000000000000000e+00
1.71760499999999983e-01  0.00000000000000000e+00  0.00000000000000000e+00
1.75992499999999968e-01  0.00000000000000000e+00  0.00000000000000000e+00
1.80267499999999997e-01  0.00000000000000000e+00  0.00000000000000000e+00
1.84585999999999972e-01  0.00000000000000000e+00  0.00000000000000000e+00
1.88947999999999977e-01  0.00000000000000000e+00  0.00000000000000000e+00
1.93353999999999970e-01  0.00000000000000000e+00  0.00000000000000000e+00
1.97804499999999994e-01  0.00000000000000000e+00  0.00000000000000000e+00
2.02300499999999994e-01  0.00000000000000000e+00  0.00000000000000000e+00
2.06841999999999998e-01  0.00000000000000000e+00  0.00000000000000000e+00
2.11429000000000006e-01  0.00000000000000000e+00  0.00000000000000000e+00
2.16062000000000004e-01  0.00000000000000000e+00  0.00000000000000000e+00
2.20741999999999994e-01  0.00000000000000000e+00  0.00000000000000000e+00
2.25469999999999976e-01  0.00000000000000000e+00  0.00000000000000000e+00
2.30245499999999964e-01  0.00000000000000000e+00  0.00000000000000000e+00
2.35069000000000000e-01  0.00000000000000000e+00  0.00000000000000000e+00
2.39941500000000002e-01  0.00000000000000000e+00  0.00000000000000000e+00
2.44862999999999970e-01  0.00000000000000000e+00  0.00000000000000000e+00
2.49834000000000001e-01  0.00000000000000000e+00  0.00000000000000000e+00
2.54855500000000013e-01  0.00000000000000000e+00  0.00000000000000000e+00
2.59928000000000048e-01  0.00000000000000000e+00  0.00000000000000000e+00
2.65051999999999954e-01  0.00000000000000000e+00  0.00000000000000000e+00
2.70227499999999954e-01  0.00000000000000000e+00  0.00000000000000000e+00
2.75455000000000005e-01  0.00000000000000000e+00  0.00000000000000000e+00
2.80735999999999930e-01  0.00000000000000000e+00  0.00000000000000000e+00
2.86070499999999950e-01  0.00000000000000000e+00  0.00000000000000000e+00
2.91458499999999954e-01  0.00000000000000000e+00  0.00000000000000000e+00
2.96900500000000012e-01  0.00000000000000000e+00  0.00000000000000000e+00
3.02398000000000000e-01  0.00000000000000000e+00  0.00000000000000000e+00
3.07951499999999989e-01  0.00000000000000000e+00  0.00000000000000000e+00
3.13560500000000020e-01  0.00000000000000000e+00  0.00000000000000000e+00
3.19226000000000010e-01  0.00000000000000000e+00  0.00000000000000000e+00
3.24948999999999988e-01  0.00000000000000000e+00  0.00000000000000000e+00
3.30730499999999927e-01  0.00000000000000000e+00  0.00000000000000000e+00
3.36569999999999925e-01  0.00000000000000000e+00  0.00000000000000000e+00
3.42468500000000009e-01  0.00000000000000000e+00  0.00000000000000000e+00
3.48426999999999987e-01  0.00000000000000000e+00  0.00000000000000000e+00
3.54444999999999899e-01  0.00000000000000000e+00  0.00000000000000000e+00
3.60524000000000011e-01  0.00000000000000000e+00  0.00000000000000000e+00
3.66664999999999963e-01  0.00000000000000000e+00  0.00000000000000000e+00
3.72867999999999977e-01  0.00000000000000000e+00  0.00000000000000000e+00
3.79133500000000012e-01  0.00000000000000000e+00  0.00000000000000000e+00
3.85461999999999971e-01  0.00000000000000000e+00  0.00000000000000000e+00
3.91854500000000050e-01  0.00000000000000000e+00  0.00000000000000000e+00
3.98311999999999888e-01  0.00000000000000000e+00  0.00000000000000000e+00
4.04835000000000000e-01  0.00000000000000000e+00  0.00000000000000000e+00
4.11423999999999956e-01  0.00000000000000000e+00  0.00000000000000000e+00
4.18079499999999937e-01  0.00000000000000000e+00  0.00000000000000000e+00
4.24802000000000013e-01  0.00000000000000000e+00  0.00000000000000000e+00
4.31592499999999990e-01  0.00000000000000000e+00  0.00000000000000000e+00
4.38451499999999939e-01  0.00000000000000000e+00  0.00000000000000000e+00
4.45379999999999943e-01  0.00000000000000000e+00  0.00000000000000000e+00
4.52378499999999906e-01  0.00000000000000000e+00  0.00000000000000000e+00
4.59447500000000009e-01  0.00000000000000000e+00  0.00000000000000000e+00
4.66588499999999962e-01  0.00000000000000000e+00  0.00000000000000000e+00
4.73801499999999987e-01  0.00000000000000000e+00  0.00000000000000000e+00
4.81087499999999946e-01  0.00000000000000000e+00  0.00000000000000000e+00
4.88447000000000020e-01  0.00000000000000000e+00  0.00000000000000000e+00
4.95881000000000016e-01  0.00000000000000000e+00  0.00000000000000000e+00
5.03390499999999963e-01  0.00000000000000000e+00  0.00000000000000000e+00
5.10975500000000027e-01  0.00000000000000000e+00  0.00000000000000000e+00
5.18637000000000015e-01  0.00000000000000000e+00  0.00000000000000000e+00
5.26375999999999955e-01  0.00000000000000000e+00  0.00000000000000000e+00
5.34193499999999877e-01  0.00000000000000000e+00  0.00000000000000000e+00
5.42090000000000072e-01  0.00000000000000000e+00  0.00000000000000000e+00
5.50066500000000014e-01  0.00000000000000000e+00  0.00000000000000000e+00
5.58123499999999995e-01  0.00000000000000000e+00  0.00000000000000000e+00
5.66261499999999973e-01  0.00000000000000000e+00  0.00000000000000000e+00
5.74482000000000159e-01  0.00000000000000000e+00  0.00000000000000000e+00
5.82786000000000026e-01  0.00000000000000000e+00  0.00000000000000000e+00
5.91173999999999866e-01  0.00000000000000000e+00  0.00000000000000000e+00
5.99646499999999971e-01  0.00000000000000000e+00  0.00000000000000000e+00
6.08204499999999926e-01  0.00000000000000000e+00  0.00000000000000000e+00
6.16848999999999870e-01  0.00000000000000000e+00  0.00000000000000000e+00
6.25580999999999943e-01  0.00000000000000000e+00  0.00000000000000000e+00
6.34401499999999841e-01  0.00000000000000000e+00  0.00000000000000000e+00
6.43310999999999855e-01  0.00000000000000000e+00  0.00000000000000000e+00
6.52310500000000015e-01  0.00000000000000000e+00  0.00000000000000000e+00
6.61401499999999865e-01  0.00000000000000000e+00  0.00000000000000000e+00
6.70583999999999847e-01  0.00000000000000000e+00  0.00000000000000000e+00
6.79858999999999991e-01  0.00000000000000000e+00  0.00000000000000000e+00
6.89227999999999952e-01  0.00000000000000000e+00  0.00000000000000000e+00
6.98691999999999869e-01  0.00000000000000000e+00  0.00000000000000000e+00
7.08251499999999923e-01  0.00000000000000000e+00  0.00000000000000000e+00
7.17907499999999921e-01  0.00000000000000000e+00  0.00000000000000000e+00
7.27661499999999961e-01  0.00000000000000000e+00  0.00000000000000000e+00
7.37514000000000003e-01  0.00000000000000000e+00  0.00000000000000000e+00
7.47465999999999964e-01  0.00000000000000000e+00  0.00000000000000000e+00
7.57518499999999984e-01  0.00000000000000000e+00  0.00000000000000000e+00
7.67672499999999980e-01  0.00000000000000000e+00  0.00000000000000000e+00
7.77929499999999940e-01  0.00000000000000000e+00  0.00000000000000000e+00
7.88289999999999824e-01  0.00000000000000000e+00  0.00000000000000000e+00
7.98754999999999771e-01  0.00000000000000000e+00  0.00000000000000000e+00
8.09326500000000060e-01  0.00000000000000000e+00  0.00000000000000000e+00
8.20004500000000025e-01  0.00000000000000000e+00  0.00000000000000000e+00
8.30790499999999876e-01  0.00000000000000000e+00  0.00000000000000000e+00
8.41685499999999975e-01  0.00000000000000000e+00  0.00000000000000000e+00
8.52690500000000018e-01  0.00000000000000000e+00  0.00000000000000000e+00
8.63807000000000103e-01  0.00000000000000000e+00  0.00000000000000000e+00
8.75035499999999855e-01  0.00000000000000000e+00  0.00000000000000000e+00
8.86377999999999888e-01  0.00000000000000000e+00  0.00000000000000000e+00
8.97835000000000161e-01  0.00000000000000000e+00  0.00000000000000000e+00
9.09407499999999924e-01  0.00000000000000000e+00  0.00000000000000000e+00
9.21097499999999902e-01  0.00000000000000000e+00  0.00000000000000000e+00
9.32905499999999943e-01  0.00000000000000000e+00  0.00000000000000000e+00
9.44833000000000034e-01  0.00000000000000000e+00  0.00000000000000000e+00
9.56880999999999871e-01  0.00000000000000000e+00  0.00000000000000000e+00
9.69050499999999815e-01  0.00000000000000000e+00  0.00000000000000000e+00
9.81343499999999924e-01  0.00000000000000000e+00  0.00000000000000000e+00
9.93760499999999825e-01  0.00000000000000000e+00  0.00000000000000000e+00

CELLS 0 0


CELL_TYPES 0


POINT_DATA 161

SCALARS Rank unsigned_int
LOOKUP_TABLE default
0 0 0 0 0 0 0 0 0 0 0 0 0 0 0 0 0 0 0 0 0 0 0 0 0 0 0 0 0 0 0 0 0 0 0 0 0 0 0 0 0 0 0 0 0 0 0 0 0 0 0 0 0 0 0 0 0 0 0 0 0 0 0 0 0 0 0 0 0 0 0 0 0 0 0 0 0 0 0 0 0 0 0 0 0 0 0 0 0 0 0 0 0 0 0 0 0 0 0 0 0 0 0 0 0 0 0 0 0 0 0 0 0 0 0 0 0 0 0 0 0 0 0 0 0 0 0 0 0 0 0 0 0 0 0 0 0 0 0 0 0 0 0 0 0 0 0 0 0 0 0 0 0 0 0 0 0 0 0 0 0 

SCALARS Temperature double
LOOKUP_TABLE default
3.00000001701769293e+02
3.00000001702001100e+02
3.00000001702450845e+02
3.00000001702816064e+02
3.00000001703082376e+02
3.00000001703277974e+02
3.00000001703427017e+02
3.00000001703545536e+02
3.00000001703643989e+02
3.00000001703729197e+02
3.00000001703805594e+02
3.00000001703876137e+02
3.00000001703942928e+02
3.00000001704007161e+02
3.00000001704069746e+02
3.00000001704131023e+02
3.00000001704191334e+02
3.00000001704250565e+02
3.00000001704308715e+02
3.00000001704365616e+02
3.00000001704420868e+02
3.00000001704474357e+02
3.00000001704525687e+02
3.00000001704574572e+02
3.00000001704620786e+02
3.00000001704664044e+02
3.00000001704704175e+02
3.00000001704741010e+02
3.00000001704774434e+02
3.00000001704804333e+02
3.00000001704830652e+02
3.00000001704853446e+02
3.00000001704872716e+02
3.00000001704888575e+02
3.00000001704901081e+02
3.00000001704910460e+02
3.00000001704916826e+02
3.00000001704920351e+02
3.00000001704921317e+02
3.00000001704919839e+02
3.00000001704916201e+02
3.00000001704910687e+02
3.00000001704903411e+02
3.00000001704894657e+02
3.00000001704884653e+02
3.00000001704873625e+02
3.00000001704861802e+02
3.00000001704849410e+02
3.00000001704836507e+02
3.00000001704823433e+02
3.00000001704810245e+02
3.00000001704797114e+02
3.00000001704784211e+02
3.00000001704771648e+02
3.00000001704759541e+02
3.00000001704747945e+02
3.00000001704736974e+02
3.00000001704726685e+02
3.00000001704717135e+02
3.00000001704708382e+02
3.00000001704700423e+02
3.00000001704693261e+02
3.00000001704687008e+02
3.00000001704681551e+02
3.00000001704676947e+02
3.00000001704673139e+02
3.00000001704670126e+02
3.00000001704667852e+02
3.00000001704666317e+02
3.00000001704665465e+02
3.00000001704665237e+02
3.00000001704665578e+02
3.00000001704666488e+02
3.00000001704667852e+02
3.00000001704669671e+02
3.00000001704671888e+02
3.00000001704674389e+02
3.00000001704677175e+02
3.00000001704680187e+02
3.00000001704683314e+02
3.00000001704686611e+02
3.00000001704690021e+02
3.00000001704693432e+02
3.00000001704696842e+02
3.00000001704700196e+02
3.00000001704703493e+02
3.00000001704706733e+02
3.00000001704709803e+02
3.00000001704712759e+02
3.00000001704715544e+02
3.00000001704718159e+02
3.00000001704720603e+02
3.00000001704722820e+02
3.00000001704724923e+02
3.00000001704726742e+02
3.00000001704728390e+02
3.00000001704729868e+02
3.00000001704731176e+02
3.00000001704732256e+02
3.00000001704733222e+02
3.00000001704734018e+02
3.00000001704734586e+02
3.00000001704735098e+02
3.00000001704735439e+02
3.00000001704735723e+02
3.00000001704735837e+02
3.00000001704735894e+02
3.00000001704735894e+02
3.00000001704735780e+02
3.00000001704735610e+02
3.00000001704735439e+02
3.00000001704735212e+02
3.00000001704734927e+02
3.00000001704734700e+02
3.00000001704734416e+02
3.00000001704734075e+02
3.00000001704733791e+02
3.00000001704733506e+02
3.00000001704733222e+02
3.00000001704732938e+02
3.00000001704732711e+02
3.00000001704732426e+02
3.00000001704732199e+02
3.00000001704732028e+02
3.00000001704731801e+02
3.00000001704731631e+02
3.00000001704731460e+02
3.00000001704731289e+02
3.00000001704731176e+02
3.00000001704731005e+02
3.00000001704730948e+02
3.00000001704730778e+02
3.00000001704730721e+02
3.00000001704730607e+02
3.00000001704730551e+02
3.00000001704730437e+02
3.00000001704730437e+02
3.00000001704730266e+02
3.00000001704730266e+02
3.00000001704730153e+02
3.00000001704730153e+02
3.00000001704730039e+02
3.00000001704729982e+02
3.00000001704729982e+02
3.00000001704729868e+02
3.00000001704729868e+02
3.00000001704729698e+02
3.00000001704729755e+02
3.00000001704729755e+02
3.00000001704728959e+02
3.00000001704731460e+02
3.00000001704725150e+02
3.00000001704737144e+02
3.00000001704717931e+02
3.00000001704743624e+02
3.00000001704714009e+02
3.00000001704742942e+02
3.00000001704718841e+02
3.00000001704735382e+02
3.00000001704726344e+02
3.00000001704730323e+02

SCALARS Heat-Flux double
LOOKUP_TABLE default
0.00000000000000000e+00
0.00000000000000000e+00
0.00000000000000000e+00
0.00000000000000000e+00
0.00000000000000000e+00
0.00000000000000000e+00
0.00000000000000000e+00
0.00000000000000000e+00
0.00000000000000000e+00
0.00000000000000000e+00
0.00000000000000000e+00
0.00000000000000000e+00
0.00000000000000000e+00
0.00000000000000000e+00
0.00000000000000000e+00
0.00000000000000000e+00
0.00000000000000000e+00
0.00000000000000000e+00
0.00000000000000000e+00
0.00000000000000000e+00
0.00000000000000000e+00
0.00000000000000000e+00
0.00000000000000000e+00
0.00000000000000000e+00
0.00000000000000000e+00
0.00000000000000000e+00
0.00000000000000000e+00
0.00000000000000000e+00
0.00000000000000000e+00
0.00000000000000000e+00
0.00000000000000000e+00
0.00000000000000000e+00
0.00000000000000000e+00
0.00000000000000000e+00
0.00000000000000000e+00
0.00000000000000000e+00
0.00000000000000000e+00
0.00000000000000000e+00
0.00000000000000000e+00
0.00000000000000000e+00
0.00000000000000000e+00
0.00000000000000000e+00
0.00000000000000000e+00
0.00000000000000000e+00
0.00000000000000000e+00
0.00000000000000000e+00
0.00000000000000000e+00
0.00000000000000000e+00
0.00000000000000000e+00
0.00000000000000000e+00
0.00000000000000000e+00
0.00000000000000000e+00
0.00000000000000000e+00
0.00000000000000000e+00
0.00000000000000000e+00
0.00000000000000000e+00
0.00000000000000000e+00
0.00000000000000000e+00
0.00000000000000000e+00
0.00000000000000000e+00
0.00000000000000000e+00
0.00000000000000000e+00
0.00000000000000000e+00
0.00000000000000000e+00
0.00000000000000000e+00
0.00000000000000000e+00
0.00000000000000000e+00
0.00000000000000000e+00
0.00000000000000000e+00
0.00000000000000000e+00
0.00000000000000000e+00
0.00000000000000000e+00
0.00000000000000000e+00
0.00000000000000000e+00
0.00000000000000000e+00
0.00000000000000000e+00
0.00000000000000000e+00
0.00000000000000000e+00
0.00000000000000000e+00
0.00000000000000000e+00
0.00000000000000000e+00
0.00000000000000000e+00
0.00000000000000000e+00
0.00000000000000000e+00
0.00000000000000000e+00
0.00000000000000000e+00
0.00000000000000000e+00
0.00000000000000000e+00
0.00000000000000000e+00
0.00000000000000000e+00
0.00000000000000000e+00
0.00000000000000000e+00
0.00000000000000000e+00
0.00000000000000000e+00
0.00000000000000000e+00
0.00000000000000000e+00
0.00000000000000000e+00
0.00000000000000000e+00
0.00000000000000000e+00
0.00000000000000000e+00
0.00000000000000000e+00
0.00000000000000000e+00
0.00000000000000000e+00
0.00000000000000000e+00
0.00000000000000000e+00
0.00000000000000000e+00
0.00000000000000000e+00
0.00000000000000000e+00
0.00000000000000000e+00
0.00000000000000000e+00
0.00000000000000000e+00
0.00000000000000000e+00
0.00000000000000000e+00
0.00000000000000000e+00
0.00000000000000000e+00
0.00000000000000000e+00
0.00000000000000000e+00
0.00000000000000000e+00
0.00000000000000000e+00
0.00000000000000000e+00
0.00000000000000000e+00
0.00000000000000000e+00
0.00000000000000000e+00
0.00000000000000000e+00
0.00000000000000000e+00
0.00000000000000000e+00
0.00000000000000000e+00
0.00000000000000000e+00
0.00000000000000000e+00
0.00000000000000000e+00
0.00000000000000000e+00
0.00000000000000000e+00
0.00000000000000000e+00
0.00000000000000000e+00
0.00000000000000000e+00
0.00000000000000000e+00
0.00000000000000000e+00
0.00000000000000000e+00
0.00000000000000000e+00
0.00000000000000000e+00
0.00000000000000000e+00
0.00000000000000000e+00
0.00000000000000000e+00
0.00000000000000000e+00
0.00000000000000000e+00
0.00000000000000000e+00
0.00000000000000000e+00
0.00000000000000000e+00
0.00000000000000000e+00
0.00000000000000000e+00
0.00000000000000000e+00
0.00000000000000000e+00
0.00000000000000000e+00
0.00000000000000000e+00
0.00000000000000000e+00
0.00000000000000000e+00
0.00000000000000000e+00
0.00000000000000000e+00
0.00000000000000000e+00
0.00000000000000000e+00
0.00000000000000000e+00

