# vtk DataFile Version 2.0

ASCII

DATASET UNSTRUCTURED_GRID

POINTS 603 double 

7.21111007393836670e-19  4.55178091131001235e-18  0.00000000000000000e+00
9.99999999999999847e-03  4.55178091131001235e-18  0.00000000000000000e+00
-2.10888978817528223e-18  6.13411570070711805e-18  0.00000000000000000e+00
9.99999999999999674e-03  6.13411570070711805e-18  0.00000000000000000e+00
5.00000000000000097e-03  4.57966997657877094e-18  0.00000000000000000e+00
-1.45716771982051810e-18  5.34294830600856520e-18  0.00000000000000000e+00
9.99999999999999500e-03  5.34294830600856520e-18  0.00000000000000000e+00
5.00000000000000010e-03  5.68989300120392770e-18  0.00000000000000000e+00
4.99999999999999924e-03  4.86516490604828731e-18  0.00000000000000000e+00
2.00000000000000004e-02  4.55178091131001235e-18  0.00000000000000000e+00
1.99999999999999935e-02  6.13411570070711805e-18  0.00000000000000000e+00
1.49999999999999994e-02  4.57966997657877094e-18  0.00000000000000000e+00
1.99999999999999969e-02  5.34294830600856520e-18  0.00000000000000000e+00
1.49999999999999994e-02  5.68989300120392770e-18  0.00000000000000000e+00
1.49999999999999977e-02  4.86516490604828731e-18  0.00000000000000000e+00
2.99999999999999920e-02  4.55178091131001235e-18  0.00000000000000000e+00
2.99999999999999920e-02  6.13411570070711805e-18  0.00000000000000000e+00
2.50000000000000014e-02  4.57966997657877094e-18  0.00000000000000000e+00
2.99999999999999885e-02  5.34294830600856520e-18  0.00000000000000000e+00
2.50000000000000014e-02  5.68989300120392770e-18  0.00000000000000000e+00
2.49999999999999944e-02  4.86516490604828731e-18  0.00000000000000000e+00
4.00000000000000008e-02  4.55178091131001235e-18  0.00000000000000000e+00
3.99999999999999939e-02  6.13411570070711805e-18  0.00000000000000000e+00
3.50000000000000033e-02  4.57966997657877094e-18  0.00000000000000000e+00
3.99999999999999939e-02  5.34294830600856520e-18  0.00000000000000000e+00
3.50000000000000033e-02  5.68989300120392770e-18  0.00000000000000000e+00
3.49999999999999964e-02  4.86516490604828731e-18  0.00000000000000000e+00
4.99999999999999958e-02  4.55178091131001235e-18  0.00000000000000000e+00
4.99999999999999889e-02  6.13411570070711805e-18  0.00000000000000000e+00
4.49999999999999983e-02  4.57966997657877094e-18  0.00000000000000000e+00
4.99999999999999889e-02  5.34294830600856520e-18  0.00000000000000000e+00
4.49999999999999983e-02  5.68989300120392770e-18  0.00000000000000000e+00
4.49999999999999914e-02  4.86516490604828731e-18  0.00000000000000000e+00
5.99999999999999908e-02  4.55178091131001235e-18  0.00000000000000000e+00
5.99999999999999839e-02  6.13411570070711805e-18  0.00000000000000000e+00
5.50000000000000003e-02  4.57966997657877094e-18  0.00000000000000000e+00
5.99999999999999839e-02  5.34294830600856520e-18  0.00000000000000000e+00
5.50000000000000003e-02  5.68989300120392770e-18  0.00000000000000000e+00
5.49999999999999864e-02  4.86516490604828731e-18  0.00000000000000000e+00
6.99999999999999928e-02  4.55178091131001235e-18  0.00000000000000000e+00
7.00000000000000067e-02  6.13411570070711805e-18  0.00000000000000000e+00
6.50000000000000022e-02  4.57966997657877094e-18  0.00000000000000000e+00
6.99999999999999928e-02  5.34294830600856520e-18  0.00000000000000000e+00
6.50000000000000022e-02  5.68989300120392770e-18  0.00000000000000000e+00
6.49999999999999883e-02  4.86516490604828731e-18  0.00000000000000000e+00
7.99999999999999878e-02  4.55178091131001235e-18  0.00000000000000000e+00
7.99999999999999878e-02  6.13411570070711805e-18  0.00000000000000000e+00
7.50000000000000111e-02  4.57966997657877094e-18  0.00000000000000000e+00
7.99999999999999878e-02  5.34294830600856520e-18  0.00000000000000000e+00
7.50000000000000111e-02  5.68989300120392770e-18  0.00000000000000000e+00
7.49999999999999972e-02  4.86516490604828731e-18  0.00000000000000000e+00
8.99999999999999828e-02  4.55178091131001235e-18  0.00000000000000000e+00
8.99999999999999828e-02  6.13411570070711805e-18  0.00000000000000000e+00
8.49999999999999922e-02  4.57966997657877094e-18  0.00000000000000000e+00
8.99999999999999828e-02  5.34294830600856520e-18  0.00000000000000000e+00
8.49999999999999922e-02  5.68989300120392770e-18  0.00000000000000000e+00
8.49999999999999784e-02  4.86516490604828731e-18  0.00000000000000000e+00
9.99999999999999917e-02  4.55178091131001235e-18  0.00000000000000000e+00
9.99999999999999778e-02  6.13411570070711805e-18  0.00000000000000000e+00
9.50000000000000011e-02  4.57966997657877094e-18  0.00000000000000000e+00
9.99999999999999778e-02  5.34294830600856520e-18  0.00000000000000000e+00
9.50000000000000011e-02  5.68989300120392770e-18  0.00000000000000000e+00
9.49999999999999872e-02  4.86516490604828731e-18  0.00000000000000000e+00
1.09999999999999987e-01  4.55178091131001235e-18  0.00000000000000000e+00
1.09999999999999973e-01  6.13411570070711805e-18  0.00000000000000000e+00
1.04999999999999996e-01  4.57966997657877094e-18  0.00000000000000000e+00
1.09999999999999973e-01  5.34294830600856520e-18  0.00000000000000000e+00
1.05000000000000010e-01  5.68989300120392770e-18  0.00000000000000000e+00
1.04999999999999982e-01  4.86516490604828731e-18  0.00000000000000000e+00
1.19999999999999982e-01  4.55178091131001235e-18  0.00000000000000000e+00
1.19999999999999968e-01  6.13411570070711805e-18  0.00000000000000000e+00
1.14999999999999991e-01  4.57966997657877094e-18  0.00000000000000000e+00
1.19999999999999968e-01  5.34294830600856520e-18  0.00000000000000000e+00
1.14999999999999991e-01  5.68989300120392770e-18  0.00000000000000000e+00
1.14999999999999977e-01  4.86516490604828731e-18  0.00000000000000000e+00
1.29999999999999977e-01  4.55178091131001235e-18  0.00000000000000000e+00
1.30000000000000004e-01  6.13411570070711805e-18  0.00000000000000000e+00
1.25000000000000000e-01  4.57966997657877094e-18  0.00000000000000000e+00
1.29999999999999977e-01  5.34294830600856520e-18  0.00000000000000000e+00
1.25000000000000000e-01  5.68989300120392770e-18  0.00000000000000000e+00
1.24999999999999972e-01  4.86516490604828731e-18  0.00000000000000000e+00
1.39999999999999986e-01  4.55178091131001235e-18  0.00000000000000000e+00
1.40000000000000013e-01  6.13411570070711805e-18  0.00000000000000000e+00
1.35000000000000009e-01  4.57966997657877094e-18  0.00000000000000000e+00
1.39999999999999986e-01  5.34294830600856520e-18  0.00000000000000000e+00
1.35000000000000009e-01  5.68989300120392770e-18  0.00000000000000000e+00
1.34999999999999981e-01  4.86516490604828731e-18  0.00000000000000000e+00
1.49999999999999967e-01  4.55178091131001235e-18  0.00000000000000000e+00
1.49999999999999994e-01  6.13411570070711805e-18  0.00000000000000000e+00
1.45000000000000018e-01  4.57966997657877094e-18  0.00000000000000000e+00
1.49999999999999967e-01  5.34294830600856520e-18  0.00000000000000000e+00
1.45000000000000018e-01  5.68989300120392770e-18  0.00000000000000000e+00
1.44999999999999990e-01  4.86516490604828731e-18  0.00000000000000000e+00
1.59999999999999976e-01  4.55178091131001235e-18  0.00000000000000000e+00
1.60000000000000003e-01  6.13411570070711805e-18  0.00000000000000000e+00
1.54999999999999999e-01  4.57966997657877094e-18  0.00000000000000000e+00
1.59999999999999976e-01  5.34294830600856520e-18  0.00000000000000000e+00
1.54999999999999999e-01  5.68989300120392770e-18  0.00000000000000000e+00
1.54999999999999971e-01  4.86516490604828731e-18  0.00000000000000000e+00
1.69999999999999984e-01  4.55178091131001235e-18  0.00000000000000000e+00
1.69999999999999984e-01  6.13411570070711805e-18  0.00000000000000000e+00
1.65000000000000008e-01  4.57966997657877094e-18  0.00000000000000000e+00
1.69999999999999984e-01  5.34294830600856520e-18  0.00000000000000000e+00
1.65000000000000008e-01  5.68989300120392770e-18  0.00000000000000000e+00
1.64999999999999980e-01  4.86516490604828731e-18  0.00000000000000000e+00
1.79999999999999966e-01  4.55178091131001235e-18  0.00000000000000000e+00
1.79999999999999966e-01  6.13411570070711805e-18  0.00000000000000000e+00
1.74999999999999989e-01  4.57966997657877094e-18  0.00000000000000000e+00
1.79999999999999966e-01  5.34294830600856520e-18  0.00000000000000000e+00
1.74999999999999989e-01  5.68989300120392770e-18  0.00000000000000000e+00
1.74999999999999961e-01  4.86516490604828731e-18  0.00000000000000000e+00
1.89999999999999974e-01  4.55178091131001235e-18  0.00000000000000000e+00
1.89999999999999974e-01  6.13411570070711805e-18  0.00000000000000000e+00
1.84999999999999998e-01  4.57966997657877094e-18  0.00000000000000000e+00
1.89999999999999947e-01  5.34294830600856520e-18  0.00000000000000000e+00
1.84999999999999998e-01  5.68989300120392770e-18  0.00000000000000000e+00
1.84999999999999970e-01  4.86516490604828731e-18  0.00000000000000000e+00
1.99999999999999983e-01  4.55178091131001235e-18  0.00000000000000000e+00
1.99999999999999983e-01  6.13411570070711805e-18  0.00000000000000000e+00
1.95000000000000007e-01  4.57966997657877094e-18  0.00000000000000000e+00
1.99999999999999956e-01  5.34294830600856520e-18  0.00000000000000000e+00
1.95000000000000007e-01  5.68989300120392770e-18  0.00000000000000000e+00
1.94999999999999979e-01  4.86516490604828731e-18  0.00000000000000000e+00
2.09999999999999964e-01  4.55178091131001235e-18  0.00000000000000000e+00
2.09999999999999937e-01  6.13411570070711805e-18  0.00000000000000000e+00
2.04999999999999988e-01  4.57966997657877094e-18  0.00000000000000000e+00
2.09999999999999937e-01  5.34294830600856520e-18  0.00000000000000000e+00
2.05000000000000016e-01  5.68989300120392770e-18  0.00000000000000000e+00
2.04999999999999960e-01  4.86516490604828731e-18  0.00000000000000000e+00
2.19999999999999973e-01  4.55178091131001235e-18  0.00000000000000000e+00
2.19999999999999946e-01  6.13411570070711805e-18  0.00000000000000000e+00
2.14999999999999969e-01  4.57966997657877094e-18  0.00000000000000000e+00
2.19999999999999946e-01  5.34294830600856520e-18  0.00000000000000000e+00
2.14999999999999997e-01  5.68989300120392770e-18  0.00000000000000000e+00
[...]
POINT_DATA 603

SCALARS Rank unsigned_int
LOOKUP_TABLE default
0 0 0 0 0 0 0 0 0 0 0 0 0 0 0 0 0 0 0 0 0 0 0 0 0 0 0 0 0 0 0 0 0 0 0 0 0 0 0 0 0 0 0 0 0 0 0 0 0 0 0 0 0 0 0 0 0 0 0 0 0 0 0 0 0 0 0 0 0 0 0 0 0 0 0 0 0 0 0 0 0 0 0 0 0 0 0 0 0 0 0 0 0 0 0 0 0 0 0 0 0 0 0 0 0 0 0 0 0 0 0 0 0 0 0 0 0 0 0 0 0 0 0 0 0 0 0 0 0 0 0 0 0 0 0 0 0 0 0 0 0 0 0 0 0 0 0 0 0 0 0 0 0 0 0 0 0 0 0 0 0 0 0 0 0 0 0 0 0 0 0 0 0 0 0 0 0 0 0 0 0 0 0 0 0 0 0 0 0 0 0 0 0 0 0 0 0 0 0 0 0 0 0 0 0 0 0 0 0 0 0 0 0 0 0 0 0 0 0 0 0 0 0 0 0 0 0 0 0 0 0 0 0 0 0 0 0 0 0 0 0 0 0 0 0 0 0 0 0 0 0 0 0 0 0 0 0 0 0 0 0 0 0 0 0 0 0 0 0 0 0 0 0 0 0 0 0 0 0 0 0 0 0 0 0 0 0 0 0 0 0 0 0 0 0 0 0 0 0 0 0 0 0 0 0 0 0 0 0 0 0 0 0 0 0 0 0 0 0 0 0 0 0 0 0 0 0 0 0 0 0 0 0 0 0 0 0 0 0 0 0 0 0 0 0 0 0 0 0 0 0 0 0 0 0 0 0 0 0 0 0 0 0 0 0 0 0 0 0 0 0 0 0 0 0 0 0 0 0 0 0 0 0 0 0 0 0 0 0 0 0 0 0 0 0 0 0 0 0 0 0 0 0 0 0 0 0 0 0 0 0 0 0 0 0 0 0 0 0 0 0 0 0 0 0 0 0 0 0 0 0 0 0 0 0 0 0 0 0 0 0 0 0 0 0 0 0 0 0 0 0 0 0 0 0 0 0 0 0 0 0 0 0 0 0 0 0 0 0 0 0 0 0 0 0 0 0 0 0 0 0 0 0 0 0 0 0 0 0 0 0 0 0 0 0 0 0 0 0 0 0 0 0 0 0 0 0 0 0 0 0 0 0 0 0 0 0 0 0 0 0 0 0 0 0 0 0 0 0 0 0 0 0 0 0 0 0 0 0 0 0 0 0 0 0 0 0 0 0 0 0 0 0 0 0 0 0 0 0 0 0 0 0 0 0 0 0 0 0 0 0 0 0 0 0 0 0 0 0 0 0 0 0 0 0 0 0 0 0 0 0 0 0 0 0 0 0 0 0 0 0 0 0 

SCALARS Temperature double
LOOKUP_TABLE default
3.00000001701769293e+02
3.00000001702816064e+02
3.00000001701769293e+02
3.00000001702816064e+02
3.00000001702001100e+02
3.00000001701769293e+02
3.00000001702816064e+02
3.00000001702001100e+02
3.00000001702001100e+02
3.00000001703545536e+02
3.00000001703545536e+02
3.00000001703277974e+02
3.00000001703545536e+02
3.00000001703277974e+02
3.00000001703277974e+02
3.00000001703876137e+02
3.00000001703876137e+02
3.00000001703729197e+02
3.00000001703876137e+02
3.00000001703729197e+02
3.00000001703729197e+02
3.00000001704069746e+02
3.00000001704069746e+02
3.00000001704007161e+02
3.00000001704069746e+02
3.00000001704007161e+02
3.00000001704007161e+02
3.00000001704308715e+02
3.00000001704308715e+02
3.00000001704191334e+02
3.00000001704308715e+02
3.00000001704191334e+02
3.00000001704191334e+02
3.00000001704474357e+02
3.00000001704474357e+02
3.00000001704365616e+02
3.00000001704474357e+02
3.00000001704365616e+02
3.00000001704365616e+02
3.00000001704620786e+02
3.00000001704620786e+02
3.00000001704574572e+02
3.00000001704620786e+02
3.00000001704574572e+02
3.00000001704574572e+02
3.00000001704741010e+02
3.00000001704741010e+02
3.00000001704704175e+02
3.00000001704741010e+02
3.00000001704704175e+02
3.00000001704704175e+02
3.00000001704830652e+02
3.00000001704830652e+02
3.00000001704804333e+02
3.00000001704830652e+02
3.00000001704804333e+02
3.00000001704804333e+02
3.00000001704888575e+02
3.00000001704888575e+02
3.00000001704872716e+02
3.00000001704888575e+02
3.00000001704872716e+02
3.00000001704872716e+02
3.00000001704916826e+02
3.00000001704916826e+02
3.00000001704910460e+02
3.00000001704916826e+02
3.00000001704910460e+02
3.00000001704910460e+02
3.00000001704919839e+02
3.00000001704919839e+02
3.00000001704921317e+02
3.00000001704919839e+02
3.00000001704921317e+02
3.00000001704921317e+02
3.00000001704903411e+02
3.00000001704903411e+02
3.00000001704916201e+02
3.00000001704903411e+02
3.00000001704916201e+02
3.00000001704916201e+02
3.00000001704884653e+02
3.00000001704884653e+02
3.00000001704894657e+02
3.00000001704884653e+02
3.00000001704894657e+02
3.00000001704894657e+02
3.00000001704849410e+02
3.00000001704849410e+02
3.00000001704873625e+02
3.00000001704849410e+02
3.00000001704873625e+02
3.00000001704873625e+02
3.00000001704823433e+02
3.00000001704823433e+02
3.00000001704836507e+02
3.00000001704823433e+02
3.00000001704836507e+02
3.00000001704836507e+02
3.00000001704784211e+02
3.00000001704784211e+02
3.00000001704810245e+02
3.00000001704784211e+02
3.00000001704810245e+02
3.00000001704810245e+02
3.00000001704759541e+02
3.00000001704759541e+02
3.00000001704771648e+02
3.00000001704759541e+02
3.00000001704771648e+02
3.00000001704771648e+02
3.00000001704736974e+02
3.00000001704736974e+02
3.00000001704747945e+02
3.00000001704736974e+02
3.00000001704747945e+02
3.00000001704747945e+02
3.00000001704717135e+02
3.00000001704717135e+02
3.00000001704726685e+02
3.00000001704717135e+02
3.00000001704726685e+02
3.00000001704726685e+02
3.00000001704693261e+02
3.00000001704693261e+02
3.00000001704700423e+02
3.00000001704693261e+02
3.00000001704700423e+02
3.00000001704700423e+02
3.00000001704681551e+02
3.00000001704681551e+02
3.00000001704687008e+02
3.00000001704681551e+02
3.00000001704687008e+02
3.00000001704687008e+02
3.00000001704673139e+02
3.00000001704673139e+02
3.00000001704676947e+02
3.00000001704673139e+02
3.00000001704676947e+02
3.00000001704676947e+02
3.00000001704667852e+02
3.00000001704667852e+02
3.00000001704670126e+02
3.00000001704667852e+02
3.00000001704670126e+02
3.00000001704670126e+02
3.00000001704665465e+02
3.00000001704665465e+02
3.00000001704666317e+02
3.00000001704665465e+02
3.00000001704666317e+02
3.00000001704666317e+02
3.00000001704665578e+02
3.00000001704665578e+02
3.00000001704665237e+02
3.00000001704665578e+02
3.00000001704665237e+02
3.00000001704665237e+02
3.00000001704667852e+02
3.00000001704667852e+02
3.00000001704666488e+02
3.00000001704667852e+02
3.00000001704666488e+02
3.00000001704666488e+02
3.00000001704671888e+02
3.00000001704671888e+02
3.00000001704669671e+02
3.00000001704671888e+02
3.00000001704669671e+02
3.00000001704669671e+02
3.00000001704677175e+02
3.00000001704677175e+02
3.00000001704674389e+02
3.00000001704677175e+02
3.00000001704674389e+02
3.00000001704674389e+02
3.00000001704683314e+02
3.00000001704683314e+02
3.00000001704680187e+02
3.00000001704683314e+02
3.00000001704680187e+02
3.00000001704680187e+02
3.00000001704686611e+02
3.00000001704686611e+02
3.00000001704683314e+02
3.00000001704686611e+02
3.00000001704683314e+02
3.00000001704683314e+02
3.00000001704693432e+02
3.00000001704693432e+02
3.00000001704690021e+02
3.00000001704693432e+02
3.00000001704690021e+02
3.00000001704690021e+02
3.00000001704700196e+02
3.00000001704700196e+02
3.00000001704696842e+02
3.00000001704700196e+02
3.00000001704696842e+02
3.00000001704696842e+02
3.00000001704706733e+02
3.00000001704706733e+02
3.00000001704703493e+02
3.00000001704706733e+02
3.00000001704703493e+02
3.00000001704703493e+02
3.00000001704709803e+02
3.00000001704709803e+02
3.00000001704706733e+02
3.00000001704709803e+02
3.00000001704706733e+02
3.00000001704706733e+02
3.00000001704715544e+02
3.00000001704715544e+02
3.00000001704712759e+02
3.00000001704715544e+02
3.00000001704712759e+02
3.00000001704712759e+02
3.00000001704720603e+02
3.00000001704720603e+02
3.00000001704718159e+02
3.00000001704720603e+02
3.00000001704718159e+02
3.00000001704718159e+02
3.00000001704722820e+02
3.00000001704722820e+02
3.00000001704720603e+02
3.00000001704722820e+02
3.00000001704720603e+02
3.00000001704720603e+02
3.00000001704726742e+02
3.00000001704726742e+02
3.00000001704724923e+02
3.00000001704726742e+02
3.00000001704724923e+02
3.00000001704724923e+02
3.00000001704728390e+02
3.00000001704728390e+02
3.00000001704726742e+02
3.00000001704728390e+02
3.00000001704726742e+02
3.00000001704726742e+02
3.00000001704731176e+02
3.00000001704731176e+02
3.00000001704729868e+02
3.00000001704731176e+02
3.00000001704729868e+02
3.00000001704729868e+02
3.00000001704732256e+02
3.00000001704732256e+02
3.00000001704732256e+02
3.00000001704732256e+02
3.00000001704732256e+02
3.00000001704732256e+02
3.00000001704734018e+02
3.00000001704734018e+02
3.00000001704733222e+02
3.00000001704734018e+02
3.00000001704733222e+02
3.00000001704733222e+02
3.00000001704734586e+02
3.00000001704734586e+02
3.00000001704734018e+02
3.00000001704734586e+02
3.00000001704734018e+02
3.00000001704734018e+02
3.00000001704735439e+02
3.00000001704735439e+02
3.00000001704735098e+02
3.00000001704735439e+02
3.00000001704735098e+02
3.00000001704735098e+02
3.00000001704735723e+02
3.00000001704735723e+02
3.00000001704735439e+02
3.00000001704735723e+02
3.00000001704735439e+02
3.00000001704735439e+02
3.00000001704735837e+02
3.00000001704735837e+02
3.00000001704735837e+02
3.00000001704735837e+02
3.00000001704735837e+02
3.00000001704735837e+02
3.00000001704735894e+02
3.00000001704735894e+02
3.00000001704735894e+02
3.00000001704735894e+02
3.00000001704735894e+02
3.00000001704735894e+02
3.00000001704735780e+02
3.00000001704735780e+02
3.00000001704735780e+02
3.00000001704735780e+02
3.00000001704735780e+02
3.00000001704735780e+02
3.00000001704735439e+02
3.00000001704735439e+02
3.00000001704735610e+02
3.00000001704735439e+02
3.00000001704735610e+02
3.00000001704735610e+02
3.00000001704735212e+02
3.00000001704735212e+02
3.00000001704735439e+02
3.00000001704735212e+02
3.00000001704735439e+02
3.00000001704735439e+02
3.00000001704734927e+02
3.00000001704734927e+02
3.00000001704734927e+02
3.00000001704734927e+02
3.00000001704734927e+02
3.00000001704734927e+02
3.00000001704734700e+02
3.00000001704734700e+02
3.00000001704734700e+02
3.00000001704734700e+02
3.00000001704734700e+02
3.00000001704734700e+02
3.00000001704734075e+02
3.00000001704734075e+02
3.00000001704734416e+02
3.00000001704734075e+02
3.00000001704734416e+02
3.00000001704734416e+02
3.00000001704733791e+02
3.00000001704733791e+02
3.00000001704734075e+02
3.00000001704733791e+02
3.00000001704734075e+02
3.00000001704734075e+02
3.00000001704733506e+02
3.00000001704733506e+02
3.00000001704733506e+02
3.00000001704733506e+02
3.00000001704733506e+02
3.00000001704733506e+02
3.00000001704733222e+02
3.00000001704733222e+02
3.00000001704733222e+02
3.00000001704733222e+02
3.00000001704733222e+02
3.00000001704733222e+02
3.00000001704732711e+02
3.00000001704732711e+02
3.00000001704732938e+02
3.00000001704732711e+02
3.00000001704732938e+02
3.00000001704732938e+02
3.00000001704732426e+02
3.00000001704732426e+02
3.00000001704732711e+02
3.00000001704732426e+02
3.00000001704732711e+02
3.00000001704732711e+02
3.00000001704732199e+02
3.00000001704732199e+02
3.00000001704732426e+02
3.00000001704732199e+02
3.00000001704732426e+02
3.00000001704732426e+02
3.00000001704732028e+02
3.00000001704732028e+02
3.00000001704732028e+02
3.00000001704732028e+02
3.00000001704732028e+02
3.00000001704732028e+02
3.00000001704731801e+02
3.00000001704731801e+02
3.00000001704731801e+02
3.00000001704731801e+02
3.00000001704731801e+02
3.00000001704731801e+02
3.00000001704731460e+02
3.00000001704731460e+02
3.00000001704731631e+02
3.00000001704731460e+02
3.00000001704731631e+02
3.00000001704731631e+02
3.00000001704731289e+02
3.00000001704731289e+02
3.00000001704731460e+02
3.00000001704731289e+02
3.00000001704731460e+02
3.00000001704731460e+02
3.00000001704731176e+02
3.00000001704731176e+02
3.00000001704731289e+02
3.00000001704731176e+02
3.00000001704731289e+02
3.00000001704731289e+02
3.00000001704731005e+02
3.00000001704731005e+02
3.00000001704731176e+02
3.00000001704731005e+02
3.00000001704731176e+02
3.00000001704731176e+02
3.00000001704730948e+02
3.00000001704730948e+02
3.00000001704731005e+02
3.00000001704730948e+02
3.00000001704731005e+02
3.00000001704731005e+02
3.00000001704730778e+02
3.00000001704730778e+02
3.00000001704730948e+02
3.00000001704730778e+02
3.00000001704730948e+02
3.00000001704730948e+02
3.00000001704730721e+02
3.00000001704730721e+02
3.00000001704730721e+02
3.00000001704730721e+02
3.00000001704730721e+02
3.00000001704730721e+02
3.00000001704730607e+02
3.00000001704730607e+02
3.00000001704730607e+02
3.00000001704730607e+02
3.00000001704730607e+02
3.00000001704730607e+02
3.00000001704730551e+02
3.00000001704730551e+02
3.00000001704730551e+02
3.00000001704730551e+02
3.00000001704730551e+02
3.00000001704730551e+02
3.00000001704730437e+02
3.00000001704730437e+02
3.00000001704730437e+02
3.00000001704730437e+02
3.00000001704730437e+02
3.00000001704730437e+02
3.00000001704730437e+02
3.00000001704730437e+02
3.00000001704730437e+02
3.00000001704730437e+02
3.00000001704730437e+02
3.00000001704730437e+02
3.00000001704730266e+02
3.00000001704730266e+02
3.00000001704730266e+02
3.00000001704730266e+02
3.00000001704730266e+02
3.00000001704730266e+02
3.00000001704730266e+02
3.00000001704730266e+02
3.00000001704730266e+02
3.00000001704730266e+02
3.00000001704730266e+02
3.00000001704730266e+02
3.00000001704730153e+02
3.00000001704730153e+02
3.00000001704730153e+02
3.00000001704730153e+02
3.00000001704730153e+02
3.00000001704730153e+02
3.00000001704730153e+02
3.00000001704730153e+02
3.00000001704730153e+02
3.00000001704730153e+02
3.00000001704730153e+02
3.00000001704730153e+02
3.00000001704730039e+02
3.00000001704730039e+02
3.00000001704730039e+02
3.00000001704730039e+02
3.00000001704730039e+02
3.00000001704730039e+02
3.00000001704729982e+02
3.00000001704729982e+02
3.00000001704729982e+02
3.00000001704729982e+02
3.00000001704729982e+02
3.00000001704729982e+02
3.00000001704729982e+02
3.00000001704729982e+02
3.00000001704729982e+02
3.00000001704729982e+02
3.00000001704729982e+02
3.00000001704729982e+02
3.00000001704729868e+02
3.00000001704729868e+02
3.00000001704729868e+02
3.00000001704729868e+02
3.00000001704729868e+02
3.00000001704729868e+02
3.00000001704729868e+02
3.00000001704729868e+02
3.00000001704729868e+02
3.00000001704729868e+02
3.00000001704729868e+02
3.00000001704729868e+02
3.00000001704729698e+02
3.00000001704729698e+02
3.00000001704729868e+02
3.00000001704729698e+02
3.00000001704729868e+02
3.00000001704729868e+02
3.00000001704729755e+02
3.00000001704729755e+02
3.00000001704729698e+02
3.00000001704729755e+02
3.00000001704729698e+02
3.00000001704729698e+02
3.00000001704729755e+02
3.00000001704729755e+02
3.00000001704729755e+02
3.00000001704729755e+02
3.00000001704729755e+02
3.00000001704729755e+02
3.00000001704728959e+02
3.00000001704728959e+02
3.00000001704729755e+02
3.00000001704728959e+02
3.00000001704729755e+02
3.00000001704729755e+02
3.00000001704731460e+02
3.00000001704731460e+02
3.00000001704728959e+02
3.00000001704731460e+02
3.00000001704728959e+02
3.00000001704728959e+02
3.00000001704731460e+02
3.00000001704731460e+02
3.00000001704731460e+02
3.00000001704731460e+02
3.00000001704731460e+02
3.00000001704731460e+02
3.00000001704725150e+02
3.00000001704725150e+02
3.00000001704725150e+02
3.00000001704725150e+02
3.00000001704725150e+02
3.00000001704725150e+02
3.00000001704737144e+02
3.00000001704737144e+02
3.00000001704737144e+02
3.00000001704737144e+02
3.00000001704737144e+02
3.00000001704737144e+02
3.00000001704717931e+02
3.00000001704717931e+02
3.00000001704717931e+02
3.00000001704717931e+02
3.00000001704717931e+02
3.00000001704717931e+02
3.00000001704743624e+02
3.00000001704743624e+02
3.00000001704717931e+02
3.00000001704743624e+02
3.00000001704717931e+02
3.00000001704717931e+02
3.00000001704714009e+02
3.00000001704714009e+02
3.00000001704743624e+02
3.00000001704714009e+02
3.00000001704743624e+02
3.00000001704743624e+02
3.00000001704742942e+02
3.00000001704742942e+02
3.00000001704714009e+02
3.00000001704742942e+02
3.00000001704714009e+02
3.00000001704714009e+02
3.00000001704742942e+02
3.00000001704742942e+02
3.00000001704742942e+02
3.00000001704742942e+02
3.00000001704742942e+02
3.00000001704742942e+02
3.00000001704718841e+02
3.00000001704718841e+02
3.00000001704718841e+02
3.00000001704718841e+02
3.00000001704718841e+02
3.00000001704718841e+02
3.00000001704735382e+02
3.00000001704735382e+02
3.00000001704735382e+02
3.00000001704735382e+02
3.00000001704735382e+02
3.00000001704735382e+02
3.00000001704726344e+02
3.00000001704726344e+02
3.00000001704735382e+02
3.00000001704726344e+02
3.00000001704735382e+02
3.00000001704735382e+02
3.00000001704730323e+02
3.00000001704730323e+02
3.00000001704726344e+02
3.00000001704730323e+02
3.00000001704726344e+02
3.00000001704726344e+02
3.00000001704730323e+02
3.00000001704730323e+02
3.00000001704730323e+02
3.00000001704730323e+02
3.00000001704730323e+02
3.00000001704730323e+02

SCALARS Heat-Flux double
LOOKUP_TABLE default
0.00000000000000000e+00
0.00000000000000000e+00
0.00000000000000000e+00
0.00000000000000000e+00
0.00000000000000000e+00
0.00000000000000000e+00
0.00000000000000000e+00
0.00000000000000000e+00
0.00000000000000000e+00
0.00000000000000000e+00
0.00000000000000000e+00
0.00000000000000000e+00
0.00000000000000000e+00
0.00000000000000000e+00
0.00000000000000000e+00
0.00000000000000000e+00
0.00000000000000000e+00
0.00000000000000000e+00
0.00000000000000000e+00
0.00000000000000000e+00
0.00000000000000000e+00
0.00000000000000000e+00
0.00000000000000000e+00
0.00000000000000000e+00
0.00000000000000000e+00
0.00000000000000000e+00
0.00000000000000000e+00
0.00000000000000000e+00
0.00000000000000000e+00
0.00000000000000000e+00
0.00000000000000000e+00
0.00000000000000000e+00
0.00000000000000000e+00
0.00000000000000000e+00
0.00000000000000000e+00
0.00000000000000000e+00
0.00000000000000000e+00
0.00000000000000000e+00
0.00000000000000000e+00
0.00000000000000000e+00
0.00000000000000000e+00
0.00000000000000000e+00
0.00000000000000000e+00
0.00000000000000000e+00
0.00000000000000000e+00
0.00000000000000000e+00
0.00000000000000000e+00
0.00000000000000000e+00
0.00000000000000000e+00
0.00000000000000000e+00
0.00000000000000000e+00
0.00000000000000000e+00
0.00000000000000000e+00
0.00000000000000000e+00
0.00000000000000000e+00
0.00000000000000000e+00
0.00000000000000000e+00
0.00000000000000000e+00
0.00000000000000000e+00
0.00000000000000000e+00
0.00000000000000000e+00
0.00000000000000000e+00
0.00000000000000000e+00
0.00000000000000000e+00
0.00000000000000000e+00
0.00000000000000000e+00
0.00000000000000000e+00
0.00000000000000000e+00
0.00000000000000000e+00
0.00000000000000000e+00
0.00000000000000000e+00
0.00000000000000000e+00
0.00000000000000000e+00
0.00000000000000000e+00
0.00000000000000000e+00
0.00000000000000000e+00
0.00000000000000000e+00
0.00000000000000000e+00
0.00000000000000000e+00
0.00000000000000000e+00
0.00000000000000000e+00
0.00000000000000000e+00
0.00000000000000000e+00
0.00000000000000000e+00
0.00000000000000000e+00
0.00000000000000000e+00
0.00000000000000000e+00
0.00000000000000000e+00
0.00000000000000000e+00
0.00000000000000000e+00
0.00000000000000000e+00
0.00000000000000000e+00
0.00000000000000000e+00
0.00000000000000000e+00
0.00000000000000000e+00
0.00000000000000000e+00
0.00000000000000000e+00
0.00000000000000000e+00
0.00000000000000000e+00
0.00000000000000000e+00
0.00000000000000000e+00
0.00000000000000000e+00
0.00000000000000000e+00
0.00000000000000000e+00
0.00000000000000000e+00
0.00000000000000000e+00
0.00000000000000000e+00
0.00000000000000000e+00
0.00000000000000000e+00
0.00000000000000000e+00
0.00000000000000000e+00
0.00000000000000000e+00
0.00000000000000000e+00
0.00000000000000000e+00
0.00000000000000000e+00
0.00000000000000000e+00
0.00000000000000000e+00
0.00000000000000000e+00
0.00000000000000000e+00
0.00000000000000000e+00
0.00000000000000000e+00
0.00000000000000000e+00
0.00000000000000000e+00
0.00000000000000000e+00
0.00000000000000000e+00
0.00000000000000000e+00
0.00000000000000000e+00
0.00000000000000000e+00
0.00000000000000000e+00
0.00000000000000000e+00
0.00000000000000000e+00
0.00000000000000000e+00
0.00000000000000000e+00
0.00000000000000000e+00
0.00000000000000000e+00
0.00000000000000000e+00
0.00000000000000000e+00
0.00000000000000000e+00
0.00000000000000000e+00
0.00000000000000000e+00
0.00000000000000000e+00
0.00000000000000000e+00
0.00000000000000000e+00
0.00000000000000000e+00
0.00000000000000000e+00
0.00000000000000000e+00
0.00000000000000000e+00
0.00000000000000000e+00
0.00000000000000000e+00
0.00000000000000000e+00
0.00000000000000000e+00
0.00000000000000000e+00
0.00000000000000000e+00
0.00000000000000000e+00
0.00000000000000000e+00
0.00000000000000000e+00
0.00000000000000000e+00
0.00000000000000000e+00
0.00000000000000000e+00
0.00000000000000000e+00
0.00000000000000000e+00
0.00000000000000000e+00
0.00000000000000000e+00
0.00000000000000000e+00
0.00000000000000000e+00
0.00000000000000000e+00
0.00000000000000000e+00
0.00000000000000000e+00
0.00000000000000000e+00
0.00000000000000000e+00
0.00000000000000000e+00
0.00000000000000000e+00
0.00000000000000000e+00